1
Lattice="20.0000000000 0.0000000000 0.0000000000 0.0000000000 20.0000000000 0.0000000000 0.0000000000 0.0000000000 20.0000000000" energy=-2024.8184318912 virial="-0.0006925450 0.0000000022 0.0000000022 0.0000000022 -0.0006925450 0.0000000022 0.0000000022 0.0000000022 -0.0006925450" pbc="T T T" Properties=species:S:1:pos:R:3:force:R:3 dirID="Ga"
Ga    10.00000000    10.00000000    10.00000000     0.00000000     0.00000000     0.00000000
1
Lattice="20.0000000000 0.0000000000 0.0000000000 0.0000000000 20.0000000000 0.0000000000 0.0000000000 0.0000000000 20.0000000000" energy=-1531.0836506708 virial="-0.0000083040 0.0000000001 0.0000000001 0.0000000001 -0.0000083040 0.0000000001 0.0000000001 0.0000000001 -0.0000083040" pbc="T T T" Properties=species:S:1:pos:R:3:force:R:3 dirID="In"
In    10.00000000    10.00000000    10.00000000     0.00000000     0.00000000     0.00000000
