1
Lattice="20.0000000000 0.0000000000 0.0000000000 0.0000000000 20.0000000000 0.0000000000 0.0000000000 0.0000000000 20.0000000000" energy=-2026.9161089911 virial="0.0091490178 0.0000000036 0.0000000036 0.0000000036 0.0091490180 0.0000000036 0.0000000036 0.0000000036 0.0091490184" pbc="T T T" Properties=species:S:1:pos:R:3:force:R:3 dirID="Ga"
Ga    10.00000000    10.00000000    10.00000000     0.00000000     0.00000000     0.00000000
1
Lattice="20.0000000000 0.0000000000 0.0000000000 0.0000000000 20.0000000000 0.0000000000 0.0000000000 0.0000000000 20.0000000000" energy=-1530.0779601179 virial="-0.0002798507 0.0000000001 0.0000000001 0.0000000001 -0.0002798507 0.0000000001 0.0000000001 0.0000000001 -0.0002798507" pbc="T T T" Properties=species:S:1:pos:R:3:force:R:3 dirID="In"
In    10.00000000    10.00000000    10.00000000     0.00000000     0.00000000     0.00000000
